ITEM: TIMESTEP
0
ITEM: NUMBER OF ATOMS
1000
ITEM: BOX BOUNDS pp ff pp
-1 11
-1 11
-3 3
ITEM: ATOMS id type xs ys zs
1 1 0.724841435674 0.224266087274 0.5
2 1 0.288347209609 0.777568524149 0.5
3 1 0.528792017882 0.786556126868 0.5
4 1 0.828902446296 0.183061546671 0.5
5 1 0.910449740426 0.760829219686 0.5
6 1 0.454995082276 0.802690306729 0.5
7 1 0.261549017275 0.640216957378 0.5
8 1 0.244842995205 0.827687585222 0.5
9 1 0.801667135996 0.785946029866 0.5
10 1 0.619621550381 0.816378955458 0.5
11 1 0.302619571114 0.430786779739 0.5
12 1 0.235812312199 0.255608039337 0.5
13 1 0.466211415104 0.668756545403 0.5
14 1 0.677403320309 0.23590346761 0.5
15 1 0.242146535892 0.447658526309 0.5
16 1 0.178582006852 0.368830447055 0.5
17 1 0.861856779793 0.10659705482 0.5
18 1 0.508783038051 0.445471216191 0.5
19 1 0.192196094217 0.489562566784 0.5
20 1 0.145707362207 0.302476059874 0.5
21 1 0.212161824415 0.415973266019 0.5
22 1 0.687940464814 0.520192056241 0.5
23 1 0.777106606813 0.551482953106 0.5
24 1 0.888986108694 0.715194487163 0.5
25 1 0.545763527794 0.708781196392 0.5
26 1 0.171451769688 0.809188327209 0.5
27 1 0.254956949765 0.80015814054 0.5
28 1 0.252275256329 0.643804905132 0.5
29 1 0.111044516234 0.61087273967 0.5
30 1 0.496547560868 0.181476674614 0.5
31 1 0.438860946432 0.597433392402 0.5
32 1 0.858261204806 0.45617904603 0.5
33 1 0.762117702779 0.662825724782 0.5
34 1 0.441260843192 0.253437841052 0.5
35 1 0.907507571577 0.728690127364 0.5
36 1 0.420172557246 0.321656522874 0.5
37 1 0.479557579934 0.562952729942 0.5
38 1 0.381420141866 0.663430440801 0.5
39 1 0.547360626588 0.399993312548 0.5
40 1 0.129540599468 0.401582384262 0.5
41 1 0.906344615818 0.32779573723 0.5
42 1 0.693975089323 0.797134746915 0.5
43 1 0.670116019291 0.892160928425 0.5
44 1 0.422522892005 0.29221965716 0.5
45 1 0.286856397124 0.206585226563 0.5
46 1 0.396297971211 0.462339037493 0.5
47 1 0.494705328517 0.262444926313 0.5
48 1 0.352955201451 0.891932102838 0.5
49 1 0.892223011485 0.237309383629 0.5
50 1 0.381669865257 0.577650274823 0.5
51 1 0.273394117825 0.373091846406 0.5
52 1 0.499491456537 0.557314355289 0.5
53 1 0.242833130042 0.505660031904 0.5
54 1 0.878001770057 0.529953081095 0.5
55 1 0.100710577726 0.710662370661 0.5
56 1 0.62008855962 0.362627853207 0.5
57 1 0.213638741109 0.216974506034 0.5
58 1 0.804293848834 0.617734036968 0.5
59 1 0.100950434382 0.0897102427678 0.5
60 1 0.292324399937 0.83714892824 0.5
61 1 0.298355593425 0.374709121731 0.5
62 1 0.725337641543 0.824811846534 0.5
63 1 0.167005276158 0.910528673842 0.5
64 1 0.10670220845 0.401877613844 0.5
65 1 0.321131027662 0.428205945439 0.5
66 1 0.609751353401 0.506181738024 0.5
67 1 0.427498372281 0.396260271744 0.5
68 1 0.203553267913 0.500140647523 0.5
69 1 0.473584813901 0.323160177526 0.5
70 1 0.605588266704 0.411816899713 0.5
71 1 0.836325952201 0.649574892976 0.5
72 1 0.773423533548 0.676509898774 0.5
73 1 0.511156133773 0.324235045138 0.5
74 1 0.531590663541 0.122496049594 0.5
75 1 0.52813506873 0.123099606441 0.5
76 1 0.69974593426 0.323988606177 0.5
77 1 0.817894270208 0.49794028745 0.5
78 1 0.499704347537 0.168851411711 0.5
79 1 0.491047207652 0.202350182616 0.5
80 1 0.0858096410836 0.524246510803 0.5
81 1 0.145142416797 0.491641364831 0.5
82 1 0.533962729374 0.176720303184 0.5
83 1 0.68714460627 0.839119109967 0.5
84 1 0.692660368 0.467563207134 0.5
85 1 0.818471831681 0.22096275917 0.5
86 1 0.346332080245 0.311400347384 0.5
87 1 0.523632128185 0.620061640716 0.5
88 1 0.373872051579 0.845682641494 0.5
89 1 0.552130466875 0.608017983783 0.5
90 1 0.678969910932 0.905025299542 0.5
91 1 0.482226909426 0.414133503979 0.5
92 1 0.409155464919 0.801554719379 0.5
93 1 0.135138607038 0.14572592103 0.5
94 1 0.295944538393 0.130829940608 0.5
95 1 0.605769982437 0.865924065665 0.5
96 1 0.0970355844061 0.673071127186 0.5
97 1 0.286621880125 0.324198986373 0.5
98 1 0.135061221637 0.517591446334 0.5
99 1 0.894640145145 0.317248401253 0.5
100 1 0.524220559593 0.106745976654 0.5
101 1 0.83864595016 0.600771716357 0.5
102 1 0.280911762848 0.23697228869 0.5
103 1 0.326839669388 0.188569360348 0.5
104 1 0.590065062246 0.447384434 0.5
105 1 0.180729487776 0.211198428977 0.5
106 1 0.21575276255 0.116460015464 0.5
107 1 0.690965904272 0.233130991768 0.5
108 1 0.271848782501 0.847151310812 0.5
109 1 0.195586763568 0.422550502232 0.5
110 1 0.346091477219 0.46738215877 0.5
111 1 0.673456841087 0.369947027898 0.5
112 1 0.718728311401 0.264186791233 0.5
113 1 0.74891103288 0.355842372863 0.5
114 1 0.618849996802 0.832203068947 0.5
115 1 0.565754550935 0.880085128868 0.5
116 1 0.534467460907 0.329170286564 0.5
117 1 0.545481372721 0.516913897356 0.5
118 1 0.53386895307 0.601173250318 0.5
119 1 0.3157803035 0.516940551122 0.5
120 1 0.903742035634 0.327596813386 0.5
121 1 0.1522997756 0.689804267973 0.5
122 1 0.230795720675 0.883660069458 0.5
123 1 0.3259405504 0.123279638085 0.5
124 1 0.192501062925 0.81491389532 0.5
125 1 0.369701079775 0.494631582842 0.5
126 1 0.733613400916 0.130956910912 0.5
127 1 0.593500823905 0.414214971004 0.5
128 1 0.256265682892 0.721604273854 0.5
129 1 0.329513191821 0.266023354155 0.5
130 1 0.670577300937 0.302244757788 0.5
131 1 0.142031558464 0.27148868285 0.5
132 1 0.371050466995 0.654888520179 0.5
133 1 0.903300578771 0.0877882659804 0.5
134 1 0.54995914173 0.780972250925 0.5
135 1 0.880851065514 0.477926924302 0.5
136 1 0.683430055333 0.0855650310668 0.5
137 1 0.468460685039 0.908508045067 0.5
138 1 0.526519202691 0.254590683084 0.5
139 1 0.802666223636 0.352606295173 0.5
140 1 0.0997000793402 0.46750285868 0.5
141 1 0.273125147585 0.809669319502 0.5
142 1 0.565562014708 0.505549248616 0.5
143 1 0.227946572372 0.555116167193 0.5
144 1 0.406846487738 0.62173783965 0.5
145 1 0.450382841103 0.581291779634 0.5
146 1 0.300747909672 0.685825323889 0.5
147 1 0.765457770134 0.0859404969428 0.5
148 1 0.19876563298 0.132005656377 0.5
149 1 0.671366405965 0.141774495408 0.5
150 1 0.719573425987 0.6036908813 0.5
151 1 0.471737050613 0.806242570282 0.5
152 1 0.909269988356 0.804647038684 0.5
153 1 0.690528440457 0.845160021427 0.5
154 1 0.659360497821 0.759806988055 0.5
155 1 0.15363683035 0.216149537183 0.5
156 1 0.66662733122 0.722744589095 0.5
157 1 0.666167710604 0.664846736777 0.5
158 1 0.421117542558 0.384700717482 0.5
159 1 0.694041737334 0.193197797971 0.5
160 1 0.102055493878 0.611069926315 0.5
161 1 0.320420241115 0.472146257908 0.5
162 1 0.207835569266 0.167221082163 0.5
163 1 0.596085813785 0.265415762704 0.5
164 1 0.852372560382 0.312827542163 0.5
165 1 0.522206316922 0.599618590305 0.5
166 1 0.728889140048 0.180625161246 0.5
167 1 0.393191718986 0.76440420678 0.5
168 1 0.0917158575093 0.21384814767 0.5
169 1 0.243729123043 0.614453154509 0.5
170 1 0.403581287045 0.401033037229 0.5
171 1 0.915054798271 0.141577731575 0.5
172 1 0.857843494645 0.738949160336 0.5
173 1 0.150331113848 0.447898818799 0.5
174 1 0.631546686892 0.792488336307 0.5
175 1 0.852651556303 0.781875640475 0.5
176 1 0.383750100721 0.372997100143 0.5
177 1 0.543206023433 0.102172917529 0.5
178 1 0.186132474669 0.35875668322 0.5
179 1 0.777279195264 0.419553411295 0.5
180 1 0.227041791963 0.631044637441 0.5
181 1 0.164510835121 0.112827323204 0.5
182 1 0.182338625169 0.1079696915 0.5
183 1 0.905679929519 0.214800346183 0.5
184 1 0.495977457364 0.647913737146 0.5
185 1 0.44614723735 0.535930119665 0.5
186 1 0.580484785865 0.230860739591 0.5
187 1 0.111707375039 0.912646129262 0.5
188 1 0.1942573348 0.836661122094 0.5
189 1 0.727844519596 0.106608515007 0.5
190 1 0.802698829948 0.349320176659 0.5
191 1 0.305355386867 0.755215031387 0.5
192 1 0.826291405061 0.136824576002 0.5
193 1 0.866710083835 0.515313317993 0.5
194 1 0.314844614866 0.442369492769 0.5
195 1 0.17944373219 0.745912289805 0.5
196 1 0.630471360241 0.909693109659 0.5
197 1 0.191613000982 0.60488818139 0.5
198 1 0.879349152674 0.255457295638 0.5
199 1 0.873740343606 0.208424053702 0.5
200 1 0.399884586235 0.773245470252 0.5
201 1 0.764793611784 0.514814599635 0.5
202 1 0.614379610362 0.811209204828 0.5
203 1 0.44748585605 0.361841758999 0.5
204 1 0.302632320063 0.323499559151 0.5
205 1 0.768528461061 0.407504571661 0.5
206 1 0.223528794911 0.521110710102 0.5
207 1 0.611562976542 0.513330614025 0.5
208 1 0.407652314906 0.720316346869 0.5
209 1 0.232707354162 0.654125557599 0.5
210 1 0.647861652323 0.904144044035 0.5
211 1 0.194218523187 0.182633495302 0.5
212 1 0.776696131333 0.644954639618 0.5
213 1 0.16645164572 0.733896902901 0.5
214 1 0.662643295305 0.319684850468 0.5
215 1 0.659668804308 0.558449559059 0.5
216 1 0.121682582818 0.831057111055 0.5
217 1 0.597003551895 0.622783583823 0.5
218 1 0.759882265732 0.262617993707 0.5
219 1 0.865073759788 0.300298401678 0.5
220 1 0.168955353411 0.3319995214 0.5
221 1 0.193648693105 0.805979707044 0.5
222 1 0.825781023806 0.217963448785 0.5
223 1 0.730425369543 0.810415280883 0.5
224 1 0.126851044129 0.103663221185 0.5
225 1 0.640861052907 0.703445047839 0.5
226 1 0.581187308396 0.114796849612 0.5
227 1 0.212689181864 0.143721616688 0.5
228 1 0.755242810208 0.650144235777 0.5
229 1 0.0880992963009 0.915046319422 0.5
230 1 0.602951570877 0.125243891283 0.5
231 1 0.698565522525 0.632651365145 0.5
232 1 0.460560510678 0.499288390253 0.5
233 1 0.681188838701 0.176163447313 0.5
234 1 0.511241806257 0.695194938526 0.5
235 1 0.449975288504 0.222115531568 0.5
236 1 0.279595170848 0.11878955876 0.5
237 1 0.7716760792 0.250006853538 0.5
238 1 0.655956245096 0.676086665151 0.5
239 1 0.228740824439 0.812462985441 0.5
240 1 0.895548354369 0.653231438887 0.5
241 1 0.879839574878 0.129615066212 0.5
242 1 0.801435618809 0.376789620216 0.5
243 1 0.226666151643 0.42161778418 0.5
244 1 0.234346689944 0.48135706698 0.5
245 1 0.811507193093 0.690659931421 0.5
246 1 0.831788964409 0.330754952912 0.5
247 1 0.78188200574 0.739216372457 0.5
248 1 0.180412599267 0.565967566312 0.5
249 1 0.767839063715 0.598156574797 0.5
250 1 0.45802485226 0.868125667305 0.5
251 1 0.563173207449 0.55900854473 0.5
252 1 0.865359535479 0.117283879023 0.5
253 1 0.463806241386 0.58153560236 0.5
254 1 0.231504534512 0.76057249763 0.5
255 1 0.4300667016 0.888005599755 0.5
256 1 0.0953031563636 0.896086767003 0.5
257 1 0.889572208765 0.235587271821 0.5
258 1 0.420671573205 0.0878992662477 0.5
259 1 0.589141790077 0.175424884891 0.5
260 1 0.713903693625 0.0853845714344 0.5
261 1 0.771848216949 0.165153323119 0.5
262 1 0.101303771947 0.694792744081 0.5
263 1 0.842862455567 0.808958483508 0.5
264 1 0.299768991784 0.16980755527 0.5
265 1 0.868801138244 0.154951400988 0.5
266 1 0.131269102406 0.667035450426 0.5
267 1 0.104447758036 0.10399746357 0.5
268 1 0.174188178016 0.819286348152 0.5
269 1 0.213958090166 0.655511997495 0.5
270 1 0.734617482814 0.696388408253 0.5
271 1 0.34133584903 0.810959260773 0.5
272 1 0.534831439532 0.895575353927 0.5
273 1 0.837493820191 0.762517225393 0.5
274 1 0.743356052751 0.54333134495 0.5
275 1 0.771502385273 0.630498601574 0.5
276 1 0.901844165899 0.48746867875 0.5
277 1 0.71974978581 0.782166994027 0.5
278 1 0.279758747877 0.64349754277 0.5
279 1 0.809278111 0.87943409683 0.5
280 1 0.377503138891 0.530365914921 0.5
281 1 0.434954272875 0.349900500483 0.5
282 1 0.656296778498 0.704767854664 0.5
283 1 0.290565305934 0.736095866599 0.5
284 1 0.182566182236 0.441229557835 0.5
285 1 0.448027077346 0.869746644546 0.5
286 1 0.190687147432 0.640726377553 0.5
287 1 0.115865363499 0.650419455054 0.5
288 1 0.589721639735 0.125054819956 0.5
289 1 0.581267981001 0.199010845714 0.5
290 1 0.634055552639 0.567620964944 0.5
291 1 0.134280051023 0.670855924565 0.5
292 1 0.87128102134 0.869336233345 0.5
293 1 0.591445292098 0.844399863548 0.5
294 1 0.893451517535 0.397414211144 0.5
295 1 0.866003203163 0.131306549482 0.5
296 1 0.261613289389 0.295293207635 0.5
297 1 0.539723584029 0.0882475957019 0.5
298 1 0.17583628556 0.61336382447 0.5
299 1 0.264444333369 0.22038763003 0.5
300 1 0.150797787161 0.300830047567 0.5
301 1 0.341560523373 0.340432714418 0.5
302 1 0.664680237337 0.578770393929 0.5
303 1 0.875286963031 0.585761293703 0.5
304 1 0.794868896164 0.550453890216 0.5
305 1 0.375056691754 0.741617598904 0.5
306 1 0.322969899665 0.636508033798 0.5
307 1 0.246231105535 0.434547380567 0.5
308 1 0.467733754484 0.245228781879 0.5
309 1 0.806306136156 0.152642030901 0.5
310 1 0.670158020953 0.229088405734 0.5
311 1 0.111700950031 0.803862967521 0.5
312 1 0.22052518054 0.226716174943 0.5
313 1 0.833966321899 0.882258253967 0.5
314 1 0.109190539878 0.746332881182 0.5
315 1 0.330710144079 0.67978155932 0.5
316 1 0.169849352095 0.371613818692 0.5
317 1 0.510701980098 0.468019939799 0.5
318 1 0.351364127519 0.217462039028 0.5
319 1 0.10654306922 0.262640969052 0.5
320 1 0.807905559692 0.332164221097 0.5
321 1 0.703958052077 0.742520012785 0.5
322 1 0.818182517857 0.66217827882 0.5
323 1 0.488730707241 0.653376631173 0.5
324 1 0.287842635259 0.675438645006 0.5
325 1 0.537677436862 0.250048762964 0.5
326 1 0.512710163037 0.477452731238 0.5
327 1 0.81620379835 0.849126555679 0.5
328 1 0.159162762251 0.323417967233 0.5
329 1 0.555676328982 0.167276326768 0.5
330 1 0.479975393379 0.87448555394 0.5
331 1 0.173957474652 0.110427879977 0.5
332 1 0.903702139977 0.355934678628 0.5
333 1 0.876317827777 0.64845731465 0.5
334 1 0.411515635733 0.403589864115 0.5
335 1 0.204189288613 0.68708417626 0.5
336 1 0.126748320094 0.552938634261 0.5
337 1 0.419931153034 0.86113791929 0.5
338 1 0.785940818371 0.612909468239 0.5
339 1 0.270484419607 0.505287858043 0.5
340 1 0.510755800396 0.250934390678 0.5
341 1 0.0934734825163 0.421534439692 0.5
342 1 0.745698929262 0.406904828453 0.5
343 1 0.689228142734 0.827327370616 0.5
344 1 0.506484005549 0.354448341931 0.5
345 1 0.515480560418 0.691813045733 0.5
346 1 0.17040929513 0.519741017218 0.5
347 1 0.160222333912 0.269250655038 0.5
348 1 0.885501577384 0.60725358679 0.5
349 1 0.397765290874 0.191159757111 0.5
350 1 0.259935940131 0.108083941815 0.5
351 1 0.780418878357 0.737764618731 0.5
352 1 0.775498282532 0.72511072046 0.5
353 1 0.611109677598 0.17566399031 0.5
354 1 0.273712753101 0.700663030392 0.5
355 1 0.13696244507 0.887200918136 0.5
356 1 0.902895541879 0.912962003166 0.5
357 1 0.150762886858 0.301080367767 0.5
358 1 0.334376428655 0.303364329768 0.5
359 1 0.644913242029 0.106722847516 0.5
360 1 0.187406899687 0.454456440867 0.5
361 1 0.196294006775 0.6553427576 0.5
362 1 0.43144199875 0.270649535232 0.5
363 1 0.748745863156 0.226777697252 0.5
364 1 0.688488746096 0.706410383446 0.5
365 1 0.234575925178 0.574886753524 0.5
366 1 0.358383706993 0.51768496154 0.5
367 1 0.83239335417 0.458285622834 0.5
368 1 0.786073284889 0.534416864616 0.5
369 1 0.779962326523 0.308503960692 0.5
370 1 0.191570578976 0.689471370521 0.5
371 1 0.0847741717188 0.198504894593 0.5
372 1 0.560925533247 0.169232051871 0.5
373 1 0.498092211513 0.518110695745 0.5
374 1 0.572243682142 0.452429997686 0.5
375 1 0.481670673329 0.659575411877 0.5
376 1 0.365175531939 0.80308225879 0.5
377 1 0.892640520107 0.138273035789 0.5
378 1 0.238633776732 0.321946839031 0.5
379 1 0.744611514769 0.267813170085 0.5
380 1 0.116007229838 0.759873339656 0.5
381 1 0.446065715993 0.408579362953 0.5
382 1 0.503827714602 0.224396063241 0.5
383 1 0.242915968554 0.321740115636 0.5
384 1 0.634071755938 0.732156164751 0.5
385 1 0.304989465722 0.409871365934 0.5
386 1 0.268950636025 0.0935196007354 0.5
387 1 0.124701451801 0.719484119231 0.5
388 1 0.399059927152 0.565451409706 0.5
389 1 0.367324808969 0.544027578711 0.5
390 1 0.185537326064 0.898508406926 0.5
391 1 0.574785795094 0.284334949626 0.5
392 1 0.905233932995 0.423611056868 0.5
393 1 0.475661213366 0.664912116207 0.5
394 1 0.440105750633 0.442130164868 0.5
395 1 0.607724945684 0.345317679571 0.5
396 1 0.744755691616 0.48487591954 0.5
397 1 0.679626805226 0.337191885522 0.5
398 1 0.724743495511 0.8575754946 0.5
399 1 0.66121334638 0.199667080911 0.5
400 1 0.30178177388 0.654084594382 0.5
401 1 0.384493161465 0.825630234851 0.5
402 1 0.442233510377 0.297615764444 0.5
403 1 0.841467533166 0.117310657455 0.5
404 1 0.683326955842 0.24404145839 0.5
405 1 0.8151491275 0.712010658736 0.5
406 1 0.771378961783 0.658081279124 0.5
407 1 0.130935205696 0.437146802774 0.5
408 1 0.781169295196 0.715093344726 0.5
409 1 0.59343411891 0.454939132914 0.5
410 1 0.225130939339 0.47644622513 0.5
411 1 0.790456225743 0.72322815432 0.5
412 1 0.553543431065 0.570191074375 0.5
413 1 0.178833249735 0.735159994487 0.5
414 1 0.570876414357 0.665292615742 0.5
415 1 0.591323055743 0.717129169295 0.5
416 1 0.320696146163 0.234277952962 0.5
417 1 0.331960875147 0.308253132391 0.5
418 1 0.691549323712 0.806475441718 0.5
419 1 0.906535358765 0.449532286516 0.5
420 1 0.398284464447 0.219396249548 0.5
421 1 0.255644424685 0.239866204621 0.5
422 1 0.467486189523 0.187179919898 0.5
423 1 0.590182750242 0.103037962447 0.5
424 1 0.350289778374 0.884255869576 0.5
425 1 0.609051918284 0.322503626301 0.5
426 1 0.263303650582 0.364795469942 0.5
427 1 0.397739844249 0.884758363088 0.5
428 1 0.278846366895 0.702844910173 0.5
429 1 0.89489203005 0.63614968265 0.5
430 1 0.196266321304 0.607999983918 0.5
431 1 0.308466509097 0.409011958326 0.5
432 1 0.43845924164 0.187401228709 0.5
433 1 0.398034837294 0.0974843058554 0.5
434 1 0.340504560929 0.346395853827 0.5
435 1 0.762701163155 0.640227233408 0.5
436 1 0.119772721585 0.517038271418 0.5
437 1 0.629685933005 0.804576720188 0.5
438 1 0.777189492979 0.444660638326 0.5
439 1 0.551126850368 0.230734746637 0.5
440 1 0.710088681967 0.61981699624 0.5
441 1 0.61777434893 0.503225618861 0.5
442 1 0.875830940446 0.260281000002 0.5
443 1 0.123983045961 0.0834764020218 0.5
444 1 0.398521448596 0.571464892387 0.5
445 1 0.711330874714 0.421403854088 0.5
446 1 0.334843803382 0.634509578506 0.5
447 1 0.245907354012 0.210483254791 0.5
448 1 0.180955790835 0.18912483967 0.5
449 1 0.664221370876 0.601199017528 0.5
450 1 0.909391399268 0.644780242553 0.5
451 1 0.780797233104 0.592783139227 0.5
452 1 0.281941551406 0.621916806275 0.5
453 1 0.166810404812 0.53887887454 0.5
454 1 0.358805325178 0.658303014763 0.5
455 1 0.200587592779 0.146647518028 0.5
456 1 0.630163653673 0.199397050667 0.5
457 1 0.402085982183 0.893546337784 0.5
458 1 0.781884402633 0.128481505821 0.5
459 1 0.632704985016 0.466431147657 0.5
460 1 0.420923788285 0.174443656814 0.5
461 1 0.859654975616 0.787665146952 0.5
462 1 0.899779404638 0.14493931974 0.5
463 1 0.144774062692 0.601025455516 0.5
464 1 0.732608497784 0.754448268781 0.5
465 1 0.864599378805 0.173272255044 0.5
466 1 0.648078707726 0.7625260084 0.5
467 1 0.603865118536 0.678482597747 0.5
468 1 0.41935033468 0.38397186102 0.5
469 1 0.427083582877 0.108642225172 0.5
470 1 0.718596980721 0.410928972505 0.5
471 1 0.343544379484 0.843709438504 0.5
472 1 0.715443662184 0.52481938856 0.5
473 1 0.841584588971 0.799508544302 0.5
474 1 0.161731775935 0.574837779745 0.5
475 1 0.613355164235 0.79438246719 0.5
476 1 0.143074150711 0.343525646572 0.5
477 1 0.120259013292 0.714317817428 0.5
478 1 0.187193966181 0.855625331265 0.5
479 1 0.142474819553 0.891850846801 0.5
480 1 0.365159354259 0.600307344111 0.5
481 1 0.284809891567 0.174973095387 0.5
482 1 0.529846922763 0.321858295838 0.5
483 1 0.830539251241 0.664757267782 0.5
484 1 0.550832166879 0.629350298782 0.5
485 1 0.801624864884 0.167442374343 0.5
486 1 0.464168427458 0.437952001775 0.5
487 1 0.545981478256 0.857333300444 0.5
488 1 0.390355566392 0.253575905597 0.5
489 1 0.481212872283 0.191816051309 0.5
490 1 0.137154912896 0.692869062968 0.5
491 1 0.512481582064 0.245268823894 0.5
492 1 0.880065815103 0.901265141625 0.5
493 1 0.86053025144 0.828205917625 0.5
494 1 0.638296244784 0.296174396591 0.5
495 1 0.41650666534 0.647468919657 0.5
496 1 0.85534108316 0.393959903479 0.5
497 1 0.393286105386 0.795930890406 0.5
498 1 0.500004765956 0.511235607468 0.5
499 1 0.738223325184 0.118722588183 0.5
500 1 0.261912462263 0.438812668118 0.5
501 1 0.325758441812 0.791875626064 0.5
502 1 0.751942094558 0.721592514846 0.5
503 1 0.879080588967 0.700439906627 0.5
504 1 0.450742366216 0.848246758167 0.5
505 1 0.511838644938 0.588545993858 0.5
506 1 0.191997283984 0.719173783075 0.5
507 1 0.312852515567 0.41453300573 0.5
508 1 0.228197825294 0.387939541632 0.5
509 1 0.778349117482 0.163565897586 0.5
510 1 0.672353071207 0.221754187745 0.5
511 1 0.667486972836 0.243922845246 0.5
512 1 0.31252535181 0.157470768181 0.5
513 1 0.368116853519 0.69395845085 0.5
514 1 0.391723192789 0.559863001884 0.5
515 1 0.154207707479 0.391481666299 0.5
516 1 0.212986649054 0.631567907759 0.5
517 1 0.562647484771 0.333269837035 0.5
518 1 0.674378690087 0.884537236941 0.5
519 1 0.709149976225 0.121482828171 0.5
520 1 0.393924629906 0.644140767195 0.5
521 1 0.65945770912 0.601096895956 0.5
522 1 0.249934902039 0.314278997238 0.5
523 1 0.628227017588 0.315882772676 0.5
524 1 0.627956803708 0.630899272174 0.5
525 1 0.622834911675 0.248288513547 0.5
526 1 0.905859448302 0.822948934885 0.5
527 1 0.147788376843 0.125126181501 0.5
528 1 0.863552550346 0.458435256183 0.5
529 1 0.367837025609 0.418592313384 0.5
530 1 0.379172059689 0.268291057561 0.5
531 1 0.51445710271 0.692864698747 0.5
532 1 0.68687609571 0.706556460811 0.5
533 1 0.895274931614 0.43126634144 0.5
534 1 0.477455810391 0.450361604989 0.5
535 1 0.504315233602 0.516472990305 0.5
536 1 0.583431963144 0.512043891627 0.5
537 1 0.575132926519 0.401147296798 0.5
538 1 0.618144786125 0.284414356857 0.5
539 1 0.373000112137 0.421095799656 0.5
540 1 0.609647245003 0.597013125601 0.5
541 1 0.846905549512 0.620730574287 0.5
542 1 0.340435887486 0.222042681386 0.5
543 1 0.142957528394 0.77554879344 0.5
544 1 0.846278819771 0.226189288962 0.5
545 1 0.322529717574 0.798881798241 0.5
546 1 0.582275693979 0.608947305046 0.5
547 1 0.294609889958 0.706613893332 0.5
548 1 0.788189412653 0.513681792148 0.5
549 1 0.750263481961 0.437424646175 0.5
550 1 0.495032834809 0.580419264431 0.5
551 1 0.901124397677 0.189523471207 0.5
552 1 0.863771318637 0.863961913282 0.5
553 1 0.915939684135 0.748421470151 0.5
554 1 0.141217853588 0.12540035523 0.5
555 1 0.154275914213 0.115300171027 0.5
556 1 0.493370141985 0.410659597312 0.5
557 1 0.187856240877 0.0875651311214 0.5
558 1 0.682741551803 0.201920794651 0.5
559 1 0.42314050584 0.839035679289 0.5
560 1 0.435539363218 0.728238104416 0.5
561 1 0.762210771432 0.331548903958 0.5
562 1 0.492195547002 0.413632387704 0.5
563 1 0.24098954293 0.470054059716 0.5
564 1 0.64351606871 0.107576074199 0.5
565 1 0.59080086534 0.519641398244 0.5
566 1 0.726531520852 0.365754403677 0.5
567 1 0.410735812582 0.364495471005 0.5
568 1 0.124164976993 0.374846377924 0.5
569 1 0.40928103662 0.778045639821 0.5
570 1 0.862417313669 0.876972311768 0.5
571 1 0.202460808792 0.239197593927 0.5
572 1 0.55753130139 0.820158539149 0.5
573 1 0.910255423074 0.343017749734 0.5
574 1 0.308260328739 0.594916319293 0.5
575 1 0.124834157189 0.404271252229 0.5
576 1 0.305194280284 0.556761546707 0.5
577 1 0.17915296641 0.14625446849 0.5
578 1 0.271261296394 0.12232927583 0.5
579 1 0.461332280365 0.109105965302 0.5
580 1 0.800312782925 0.402512851164 0.5
581 1 0.459357372 0.850039847154 0.5
582 1 0.252969749017 0.421602601846 0.5
583 1 0.287583615213 0.163411129395 0.5
584 1 0.334997366963 0.360924728098 0.5
585 1 0.867532469374 0.306417817478 0.5
586 1 0.316753229813 0.202469763418 0.5
587 1 0.822836668054 0.894416153815 0.5
588 1 0.66648926627 0.103532805756 0.5
589 1 0.756050354628 0.154636568506 0.5
590 1 0.597575795694 0.314542323708 0.5
591 1 0.683468355823 0.140575701236 0.5
592 1 0.680029307455 0.484997333114 0.5
593 1 0.803580250214 0.261350288915 0.5
594 1 0.534769164937 0.840531346278 0.5
595 1 0.687282558217 0.179101340578 0.5
596 1 0.463881676059 0.815196006311 0.5
597 1 0.668896261793 0.237594392092 0.5
598 1 0.509918896082 0.483444267897 0.5
599 1 0.116702645679 0.764365262938 0.5
600 1 0.722577251966 0.601737799674 0.5
601 1 0.60115670356 0.87668829331 0.5
602 1 0.245880766017 0.230961311074 0.5
603 1 0.506976336657 0.358336196101 0.5
604 1 0.67288733205 0.22622614642 0.5
605 1 0.648842364728 0.305751212566 0.5
606 1 0.683007234048 0.469493253475 0.5
607 1 0.69754831507 0.651080681962 0.5
608 1 0.434873776017 0.366430445252 0.5
609 1 0.246737266255 0.270605057281 0.5
610 1 0.765064699377 0.689639688197 0.5
611 1 0.444210337165 0.414602286186 0.5
612 1 0.70948709811 0.832407289546 0.5
613 1 0.276411511194 0.608427729528 0.5
614 1 0.540646498926 0.122178258584 0.5
615 1 0.826610761581 0.216828650827 0.5
616 1 0.424502867826 0.788556889018 0.5
617 1 0.508145397522 0.349421405756 0.5
618 1 0.484306012647 0.387076459593 0.5
619 1 0.631147959289 0.74582302204 0.5
620 1 0.326114507326 0.134138381828 0.5
621 1 0.110630015392 0.685496329693 0.5
622 1 0.914386445464 0.321283009528 0.5
623 1 0.791814168227 0.497766559883 0.5
624 1 0.564051926565 0.815761449123 0.5
625 1 0.379001269998 0.518425891543 0.5
626 1 0.504139991851 0.427997117336 0.5
627 1 0.236449150531 0.453761485142 0.5
628 1 0.284634459792 0.553473501008 0.5
629 1 0.222008854936 0.563458120322 0.5
630 1 0.525720594747 0.633197959623 0.5
631 1 0.200114085695 0.694273036888 0.5
632 1 0.394606152055 0.241172502806 0.5
633 1 0.697276459781 0.82925788647 0.5
634 1 0.085117618914 0.132870617286 0.5
635 1 0.727230318675 0.397810962716 0.5
636 1 0.823524031472 0.115031738259 0.5
637 1 0.784525905014 0.423463183487 0.5
638 1 0.37444905582 0.456656946402 0.5
639 1 0.252808322771 0.75327514312 0.5
640 1 0.215652863654 0.472916190613 0.5
641 1 0.818370593848 0.0863477662071 0.5
642 1 0.439661298876 0.724806951149 0.5
643 1 0.343479225896 0.146468559285 0.5
644 1 0.340774503352 0.288702557226 0.5
645 1 0.607227462164 0.859173246341 0.5
646 1 0.535173773873 0.832202548465 0.5
647 1 0.892157749879 0.462674676044 0.5
648 1 0.231360443818 0.373253498734 0.5
649 1 0.88288705348 0.0865213056168 0.5
650 1 0.309166512036 0.683050131608 0.5
651 1 0.760235325116 0.719351134068 0.5
652 1 0.118568510771 0.84457150138 0.5
653 1 0.833506788752 0.884650962043 0.5
654 1 0.89207160617 0.506426616042 0.5
655 1 0.0900259881459 0.286332334344 0.5
656 1 0.173516788957 0.85573242483 0.5
657 1 0.855246125435 0.34847679111 0.5
658 1 0.70517484976 0.562261261034 0.5
659 1 0.455042560761 0.125877975643 0.5
660 1 0.306771379037 0.673307697355 0.5
661 1 0.874656839484 0.446975646574 0.5
662 1 0.840295342507 0.508104167118 0.5
663 1 0.651526492842 0.273678682627 0.5
664 1 0.262918050377 0.325173263672 0.5
665 1 0.514096534456 0.494147860839 0.5
666 1 0.220277630604 0.440240496541 0.5
667 1 0.488720606824 0.493159333715 0.5
668 1 0.650125122265 0.904372686182 0.5
669 1 0.200523686097 0.107501191082 0.5
670 1 0.657899746967 0.37616221654 0.5
671 1 0.636266127797 0.651520967819 0.5
672 1 0.622311030014 0.90561094471 0.5
673 1 0.358819226513 0.642437381955 0.5
674 1 0.66734908329 0.163024080177 0.5
675 1 0.60362897328 0.264632605289 0.5
676 1 0.231340089837 0.223762434152 0.5
677 1 0.483205064918 0.832052716117 0.5
678 1 0.826310066253 0.477838861781 0.5
679 1 0.601772084478 0.729849659413 0.5
680 1 0.754926299731 0.454798057136 0.5
681 1 0.149132832525 0.863172851168 0.5
682 1 0.379416310944 0.738836860654 0.5
683 1 0.293539442748 0.595490057227 0.5
684 1 0.852644780526 0.349880678155 0.5
685 1 0.73686808404 0.916547674751 0.5
686 1 0.735111679553 0.347161725546 0.5
687 1 0.699726932249 0.376003726266 0.5
688 1 0.273872813246 0.264269951619 0.5
689 1 0.547221122263 0.317788434992 0.5
690 1 0.116654925142 0.270701917955 0.5
691 1 0.659517909529 0.894989663705 0.5
692 1 0.556275555867 0.341229161903 0.5
693 1 0.397407237849 0.718789922198 0.5
694 1 0.685636311685 0.752051268992 0.5
695 1 0.706048342393 0.68833251947 0.5
696 1 0.905147546449 0.628299598804 0.5
697 1 0.807281223928 0.674703268568 0.5
698 1 0.764982084298 0.453722651683 0.5
699 1 0.87273867529 0.751746644977 0.5
700 1 0.798264515388 0.689130367869 0.5
701 1 0.600519265798 0.453316323182 0.5
702 1 0.140434720677 0.705129324649 0.5
703 1 0.646658363577 0.089309691067 0.5
704 1 0.560928630958 0.184286448815 0.5
705 1 0.236610938119 0.659720378116 0.5
706 1 0.152116111247 0.482754881616 0.5
707 1 0.547022429439 0.690996205216 0.5
708 1 0.276749777075 0.406916158902 0.5
709 1 0.304647093987 0.608249237616 0.5
710 1 0.521208389305 0.287755614038 0.5
711 1 0.866628391498 0.212749435064 0.5
712 1 0.691568339193 0.715227521982 0.5
713 1 0.797707043207 0.718479809069 0.5
714 1 0.222909361377 0.856488036189 0.5
715 1 0.741008624475 0.382531152832 0.5
716 1 0.82505203055 0.404251683182 0.5
717 1 0.412377406063 0.685740286833 0.5
718 1 0.805515721883 0.240485511367 0.5
719 1 0.522794278804 0.308533491705 0.5
720 1 0.11135512196 0.177445615111 0.5
721 1 0.737976238457 0.848007528759 0.5
722 1 0.834606153371 0.521077841837 0.5
723 1 0.63844552351 0.368673375651 0.5
724 1 0.432593768617 0.105844786249 0.5
725 1 0.617770638426 0.119283227912 0.5
726 1 0.272007504463 0.408863162287 0.5
727 1 0.404058146144 0.690302372639 0.5
728 1 0.134082436003 0.1777716614 0.5
729 1 0.57471833165 0.723430934897 0.5
730 1 0.566176541013 0.75327085836 0.5
731 1 0.222078448522 0.64517525413 0.5
732 1 0.845414253463 0.529607703302 0.5
733 1 0.55956344463 0.788942780871 0.5
734 1 0.51354135249 0.163259982968 0.5
735 1 0.403304953844 0.109789127545 0.5
736 1 0.11358094601 0.851139123152 0.5
737 1 0.481991630693 0.410415857942 0.5
738 1 0.54179852429 0.447657740235 0.5
739 1 0.827859001635 0.18818484237 0.5
740 1 0.703292122108 0.0853984072322 0.5
741 1 0.129471026136 0.513791251804 0.5
742 1 0.756028139707 0.768307832032 0.5
743 1 0.55863590411 0.832386458238 0.5
744 1 0.283308432699 0.851209626756 0.5
745 1 0.612218174187 0.437672430383 0.5
746 1 0.806528027068 0.2133371035 0.5
747 1 0.289008663167 0.60206292317 0.5
748 1 0.551473287216 0.251590549415 0.5
749 1 0.23674403437 0.50457331629 0.5
750 1 0.139835253245 0.812444766301 0.5
751 1 0.505922914594 0.810159095601 0.5
752 1 0.151110368289 0.60117424196 0.5
753 1 0.904661798847 0.404517713354 0.5
754 1 0.738912261266 0.609485428815 0.5